<?xml version="1.0"?>
<VTKFile type="UnstructuredGrid"  version="0.1"  >
<UnstructuredGrid>
<Piece  NumberOfPoints="441" NumberOfCells="800">
<Points>
<DataArray  type="Float64"  NumberOfComponents="3"  format="ascii">0 0 0  0.05 0 0  0.1 0 0  0.15 0 0  0.2 0 0  0.25 0 0  0.3 0 0  0.35 0 0  0.4 0 0  0.45 0 0  0.5 0 0  0.55 0 0  0.6 0 0  0.65 0 0  0.7 0 0  0.75 0 0  0.8 0 0  0.85 0 0  0.9 0 0  0.95 0 0  1 0 0  0 0.05 0  0.05 0.05 0  0.1 0.05 0  0.15 0.05 0  0.2 0.05 0  0.25 0.05 0  0.3 0.05 0  0.35 0.05 0  0.4 0.05 0  0.45 0.05 0  0.5 0.05 0  0.55 0.05 0  0.6 0.05 0  0.65 0.05 0  0.7 0.05 0  0.75 0.05 0  0.8 0.05 0  0.85 0.05 0  0.9 0.05 0  0.95 0.05 0  1 0.05 0  0 0.1 0  0.05 0.1 0  0.1 0.1 0  0.15 0.1 0  0.2 0.1 0  0.25 0.1 0  0.3 0.1 0  0.35 0.1 0  0.4 0.1 0  0.45 0.1 0  0.5 0.1 0  0.55 0.1 0  0.6 0.1 0  0.65 0.1 0  0.7 0.1 0  0.75 0.1 0  0.8 0.1 0  0.85 0.1 0  0.9 0.1 0  0.95 0.1 0  1 0.1 0  0 0.15 0  0.05 0.15 0  0.1 0.15 0  0.15 0.15 0  0.2 0.15 0  0.25 0.15 0  0.3 0.15 0  0.35 0.15 0  0.4 0.15 0  0.45 0.15 0  0.5 0.15 0  0.55 0.15 0  0.6 0.15 0  0.65 0.15 0  0.7 0.15 0  0.75 0.15 0  0.8 0.15 0  0.85 0.15 0  0.9 0.15 0  0.95 0.15 0  1 0.15 0  0 0.2 0  0.05 0.2 0  0.1 0.2 0  0.15 0.2 0  0.2 0.2 0  0.25 0.2 0  0.3 0.2 0  0.35 0.2 0  0.4 0.2 0  0.45 0.2 0  0.5 0.2 0  0.55 0.2 0  0.6 0.2 0  0.65 0.2 0  0.7 0.2 0  0.75 0.2 0  0.8 0.2 0  0.85 0.2 0  0.9 0.2 0  0.95 0.2 0  1 0.2 0  0 0.25 0  0.05 0.25 0  0.1 0.25 0  0.15 0.25 0  0.2 0.25 0  0.25 0.25 0  0.3 0.25 0  0.35 0.25 0  0.4 0.25 0  0.45 0.25 0  0.5 0.25 0  0.55 0.25 0  0.6 0.25 0  0.65 0.25 0  0.7 0.25 0  0.75 0.25 0  0.8 0.25 0  0.85 0.25 0  0.9 0.25 0  0.95 0.25 0  1 0.25 0  0 0.3 0  0.05 0.3 0  0.1 0.3 0  0.15 0.3 0  0.2 0.3 0  0.25 0.3 0  0.3 0.3 0  0.35 0.3 0  0.4 0.3 0  0.45 0.3 0  0.5 0.3 0  0.55 0.3 0  0.6 0.3 0  0.65 0.3 0  0.7 0.3 0  0.75 0.3 0  0.8 0.3 0  0.85 0.3 0  0.9 0.3 0  0.95 0.3 0  1 0.3 0  0 0.35 0  0.05 0.35 0  0.1 0.35 0  0.15 0.35 0  0.2 0.35 0  0.25 0.35 0  0.3 0.35 0  0.35 0.35 0  0.4 0.35 0  0.45 0.35 0  0.5 0.35 0  0.55 0.35 0  0.6 0.35 0  0.65 0.35 0  0.7 0.35 0  0.75 0.35 0  0.8 0.35 0  0.85 0.35 0  0.9 0.35 0  0.95 0.35 0  1 0.35 0  0 0.4 0  0.05 0.4 0  0.1 0.4 0  0.15 0.4 0  0.2 0.4 0  0.25 0.4 0  0.3 0.4 0  0.35 0.4 0  0.4 0.4 0  0.45 0.4 0  0.5 0.4 0  0.55 0.4 0  0.6 0.4 0  0.65 0.4 0  0.7 0.4 0  0.75 0.4 0  0.8 0.4 0  0.85 0.4 0  0.9 0.4 0  0.95 0.4 0  1 0.4 0  0 0.45 0  0.05 0.45 0  0.1 0.45 0  0.15 0.45 0  0.2 0.45 0  0.25 0.45 0  0.3 0.45 0  0.35 0.45 0  0.4 0.45 0  0.45 0.45 0  0.5 0.45 0  0.55 0.45 0  0.6 0.45 0  0.65 0.45 0  0.7 0.45 0  0.75 0.45 0  0.8 0.45 0  0.85 0.45 0  0.9 0.45 0  0.95 0.45 0  1 0.45 0  0 0.5 0  0.05 0.5 0  0.1 0.5 0  0.15 0.5 0  0.2 0.5 0  0.25 0.5 0  0.3 0.5 0  0.35 0.5 0  0.4 0.5 0  0.45 0.5 0  0.5 0.5 0  0.55 0.5 0  0.6 0.5 0  0.65 0.5 0  0.7 0.5 0  0.75 0.5 0  0.8 0.5 0  0.85 0.5 0  0.9 0.5 0  0.95 0.5 0  1 0.5 0  0 0.55 0  0.05 0.55 0  0.1 0.55 0  0.15 0.55 0  0.2 0.55 0  0.25 0.55 0  0.3 0.55 0  0.35 0.55 0  0.4 0.55 0  0.45 0.55 0  0.5 0.55 0  0.55 0.55 0  0.6 0.55 0  0.65 0.55 0  0.7 0.55 0  0.75 0.55 0  0.8 0.55 0  0.85 0.55 0  0.9 0.55 0  0.95 0.55 0  1 0.55 0  0 0.6 0  0.05 0.6 0  0.1 0.6 0  0.15 0.6 0  0.2 0.6 0  0.25 0.6 0  0.3 0.6 0  0.35 0.6 0  0.4 0.6 0  0.45 0.6 0  0.5 0.6 0  0.55 0.6 0  0.6 0.6 0  0.65 0.6 0  0.7 0.6 0  0.75 0.6 0  0.8 0.6 0  0.85 0.6 0  0.9 0.6 0  0.95 0.6 0  1 0.6 0  0 0.65 0  0.05 0.65 0  0.1 0.65 0  0.15 0.65 0  0.2 0.65 0  0.25 0.65 0  0.3 0.65 0  0.35 0.65 0  0.4 0.65 0  0.45 0.65 0  0.5 0.65 0  0.55 0.65 0  0.6 0.65 0  0.65 0.65 0  0.7 0.65 0  0.75 0.65 0  0.8 0.65 0  0.85 0.65 0  0.9 0.65 0  0.95 0.65 0  1 0.65 0  0 0.7 0  0.05 0.7 0  0.1 0.7 0  0.15 0.7 0  0.2 0.7 0  0.25 0.7 0  0.3 0.7 0  0.35 0.7 0  0.4 0.7 0  0.45 0.7 0  0.5 0.7 0  0.55 0.7 0  0.6 0.7 0  0.65 0.7 0  0.7 0.7 0  0.75 0.7 0  0.8 0.7 0  0.85 0.7 0  0.9 0.7 0  0.95 0.7 0  1 0.7 0  0 0.75 0  0.05 0.75 0  0.1 0.75 0  0.15 0.75 0  0.2 0.75 0  0.25 0.75 0  0.3 0.75 0  0.35 0.75 0  0.4 0.75 0  0.45 0.75 0  0.5 0.75 0  0.55 0.75 0  0.6 0.75 0  0.65 0.75 0  0.7 0.75 0  0.75 0.75 0  0.8 0.75 0  0.85 0.75 0  0.9 0.75 0  0.95 0.75 0  1 0.75 0  0 0.8 0  0.05 0.8 0  0.1 0.8 0  0.15 0.8 0  0.2 0.8 0  0.25 0.8 0  0.3 0.8 0  0.35 0.8 0  0.4 0.8 0  0.45 0.8 0  0.5 0.8 0  0.55 0.8 0  0.6 0.8 0  0.65 0.8 0  0.7 0.8 0  0.75 0.8 0  0.8 0.8 0  0.85 0.8 0  0.9 0.8 0  0.95 0.8 0  1 0.8 0  0 0.85 0  0.05 0.85 0  0.1 0.85 0  0.15 0.85 0  0.2 0.85 0  0.25 0.85 0  0.3 0.85 0  0.35 0.85 0  0.4 0.85 0  0.45 0.85 0  0.5 0.85 0  0.55 0.85 0  0.6 0.85 0  0.65 0.85 0  0.7 0.85 0  0.75 0.85 0  0.8 0.85 0  0.85 0.85 0  0.9 0.85 0  0.95 0.85 0  1 0.85 0  0 0.9 0  0.05 0.9 0  0.1 0.9 0  0.15 0.9 0  0.2 0.9 0  0.25 0.9 0  0.3 0.9 0  0.35 0.9 0  0.4 0.9 0  0.45 0.9 0  0.5 0.9 0  0.55 0.9 0  0.6 0.9 0  0.65 0.9 0  0.7 0.9 0  0.75 0.9 0  0.8 0.9 0  0.85 0.9 0  0.9 0.9 0  0.95 0.9 0  1 0.9 0  0 0.95 0  0.05 0.95 0  0.1 0.95 0  0.15 0.95 0  0.2 0.95 0  0.25 0.95 0  0.3 0.95 0  0.35 0.95 0  0.4 0.95 0  0.45 0.95 0  0.5 0.95 0  0.55 0.95 0  0.6 0.95 0  0.65 0.95 0  0.7 0.95 0  0.75 0.95 0  0.8 0.95 0  0.85 0.95 0  0.9 0.95 0  0.95 0.95 0  1 0.95 0  0 1 0  0.05 1 0  0.1 1 0  0.15 1 0  0.2 1 0  0.25 1 0  0.3 1 0  0.35 1 0  0.4 1 0  0.45 1 0  0.5 1 0  0.55 1 0  0.6 1 0  0.65 1 0  0.7 1 0  0.75 1 0  0.8 1 0  0.85 1 0  0.9 1 0  0.95 1 0  1 1 0  </DataArray>
</Points>
<Cells>
[...]
<PointData  Scalars="f_54"> 
<DataArray  type="Float64"  Name="f_54"  format="ascii">0.0000000000000000e+00  0.0000000000000000e+00  0.0000000000000000e+00  0.0000000000000000e+00  0.0000000000000000e+00  0.0000000000000000e+00  0.0000000000000000e+00  0.0000000000000000e+00  0.0000000000000000e+00  0.0000000000000000e+00  0.0000000000000000e+00  0.0000000000000000e+00  0.0000000000000000e+00  0.0000000000000000e+00  0.0000000000000000e+00  0.0000000000000000e+00  0.0000000000000000e+00  0.0000000000000000e+00  0.0000000000000000e+00  0.0000000000000000e+00  0.0000000000000000e+00  0.0000000000000000e+00  2.7815018633713898e-04  5.5265456266984493e-04  8.2054023722551953e-04  1.0786175065853798e-03  1.3234909540664945e-03  1.5515286696000381e-03  1.7588177558686621e-03  1.9411152820319475e-03  2.0937984532418434e-03  2.2118162395886034e-03  2.2896443731425290e-03  2.3212456538605976e-03  2.3000375957446702e-03  2.2188694283363244e-03  2.0700102083918959e-03  1.8451491257523256e-03  1.5354077055077368e-03  1.1313607273317841e-03  6.2305569846011306e-04  0.0000000000000000e+00  0.0000000000000000e+00  5.5265456266984493e-04  1.0983863535908498e-03  1.6310977348912891e-03  2.1443982794698284e-03  2.6315280121955672e-03  3.0852676849002004e-03  3.4978406273223103e-03  3.8608108863549201e-03  4.1649813214343851e-03  4.4002949537655005e-03  4.5557430196344357e-03  4.6192835508338569e-03  4.5777746518927895e-03  4.4169267482212868e-03  4.1212777254444229e-03  3.6741938390406170e-03  3.0578972977942701e-03  2.2535182659886811e-03  1.2411646896744162e-03  0.0000000000000000e+00  0.0000000000000000e+00  8.2054023722551920e-04  1.6310977348912891e-03  2.4225267701679354e-03  3.1853133416318989e-03  3.9094230312221841e-03  4.5841477921712923e-03  5.1979494323901752e-03  5.7383012713846842e-03  6.1915308638079225e-03  6.5426676186977816e-03  6.7753000860216323e-03  6.8714486419122313e-03  6.8114601228441447e-03  6.5739314001385741e-03  6.1356686678262877e-03  5.4716880525293001e-03  4.5552608332605892e-03  3.3580031211253550e-03  1.8500059858773462e-03  0.0000000000000000e+00  0.0000000000000000e+00  1.0786175065853794e-03  2.1443982794698280e-03  3.1853133416318989e-03  4.1888784269097376e-03  5.1419390576543378e-03  6.0304560760368695e-03  6.8392892817144436e-03  7.5519797132286024e-03  8.1505331705894711e-03  8.6152093328214861e-03  8.9243225462734450e-03  9.0540620643337621e-03  8.9783410470833588e-03  8.6686846890489111e-03  8.0941680468520766e-03  7.2214130613533663e-03  6.0146515637335644e-03  4.4358566456681302e-03  2.4449391154201237e-03  0.0000000000000000e+00  0.0000000000000000e+00  1.3234909540664930e-03  2.6315280121955663e-03  3.9094230312221832e-03  5.1419390576543361e-03  6.3130186770395539e-03  7.4055106356408383e-03  8.4008930947056613e-03  9.2789939385905205e-03  1.0017710742298052e-02  1.0592735311225681e-02  1.0977290190297868e-02  1.1141887149326334e-02  1.1054120179675138e-02  1.0678507603165587e-02  9.9763989446124707e-03  8.9059615764869021e-03  7.4222591308244655e-03  5.4774278377480931e-03  3.0209483506506291e-03  0.0000000000000000e+00  0.0000000000000000e+00  1.5515286696000372e-03  3.0852676849001987e-03  4.5841477921712897e-03  6.0304560760368669e-03  7.4055106356408365e-03  8.6893299355428073e-03  9.8602952544628655e-03  1.0894806413711157e-02  1.1766933276015714e-02  1.2448068309440044e-02  1.2906588809632373e-02  1.3107541094894619e-02  1.3012362898066896e-02  1.2578663804336598e-02  1.1760086159312190e-02  1.0506269340234161e-02  8.7629374134905666e-03  6.4721228805958700e-03  3.5725269296550278e-03  0.0000000000000000e+00  0.0000000000000000e+00  1.7588177558686610e-03  3.4978406273223073e-03  5.1979494323901709e-03  6.8392892817144401e-03  8.4008930947056595e-03  9.8602952544628655e-03  1.1193133067087949e-02  1.2372735417638610e-02  1.3369700503490428e-02  1.4151467827120125e-02  1.4681893814926709e-02  1.4920845495960825e-02  1.4823832437872660e-02  1.4341703087243352e-02  1.3420436818288793e-02  1.2001065805422708e-02  1.0019759222199380e-02  7.4080939757132968e-03  4.0935195746518421e-03  0.0000000000000000e+00  0.0000000000000000e+00  1.9411152820319464e-03  3.8608108863549167e-03  5.7383012713846790e-03  7.5519797132285989e-03  9.2789939385905205e-03  1.0894806413711152e-02  1.2372735417638607e-02  1.3683474740572493e-02  1.4794592465395507e-02  1.5670013018363058e-02  1.6269491746295318e-02  1.6548097877339050e-02  1.6455729849510728e-02  1.5936696245274558e-02  1.4929404861119605e-02  1.3366209674703644e-02  1.1173467371915442e-02  8.2718474672895930e-03  4.5769189154629096e-03  0.0000000000000000e+00  0.0000000000000000e+00  2.0937984532418416e-03  4.1649813214343825e-03  6.1915308638079156e-03  8.1505331705894659e-03  1.0017710742298049e-02  1.1766933276015709e-02  1.3369700503490426e-02  1.4794592465395509e-02  1.6006685146719820e-02  1.6966933319704516e-02  1.7631528214052544e-02  1.7951245767257665e-02  1.7870812099271279e-02  1.7328326504184186e-02  1.6254797769973496e-02  1.4573864569785934e-02  1.2201780275645210e-02  9.0477395592062099e-03  5.0145999523564209e-03  0.0000000000000000e+00  0.0000000000000000e+00  2.2118162395886013e-03  4.4002949537654953e-03  6.5426676186977730e-03  8.6152093328214791e-03  1.0592735311225674e-02  1.2448068309440037e-02  1.4151467827120118e-02  1.5670013018363054e-02  1.6966933319704513e-02  1.8000884450796267e-02  1.8725173410070833e-02  1.9086945355775299e-02  1.9026358919520939e-02  1.8475795429540958e-02  1.7359171722755185e-02  1.5591453595024883e-02  1.3078491522714205e-02  9.7173105569315441e-03  5.3969651870143685e-03  0.0000000000000000e+00  0.0000000000000000e+00  2.2896443731425268e-03  4.5557430196344314e-03  6.7753000860216253e-03  8.9243225462734381e-03  1.0977290190297863e-02  1.2906588809632366e-02  1.4681893814926697e-02  1.6269491746295311e-02  1.7631528214052533e-02  1.8725173410070822e-02  1.9501701513896321e-02  1.9905489632866782e-02  1.9872957453039998e-02  1.9331492990797606e-02  1.8198444823906604e-02  1.6380306943902665e-02  1.3772273460631083e-02  1.0258380970151288e-02  5.7124558713579354e-03  0.0000000000000000e+00  0.0000000000000000e+00  2.3212456538605980e-03  4.6192835508338560e-03  6.8714486419122261e-03  9.0540620643337569e-03  1.1141887149326327e-02  1.3107541094894610e-02  1.4920845495960813e-02  1.6548097877339039e-02  1.7951245767257647e-02  1.9086945355775296e-02  1.9905489632866778e-02  2.0349598171864314e-02  2.0353075689261375e-02  1.9839373907585250e-02  1.8720137025669801e-02  1.6893880704813485e-02  1.4245047908007435e-02  1.0643786419525809e-02  5.9468552098658660e-03  0.0000000000000000e+00  0.0000000000000000e+00  2.3000375957446715e-03  4.5777746518927886e-03  6.8114601228441421e-03  8.9783410470833536e-03  1.1054120179675130e-02  1.3012362898066884e-02  1.4823832437872645e-02  1.6455729849510711e-02  1.7870812099271275e-02  1.9026358919520932e-02  1.9872957453039995e-02  2.0353075689261372e-02  2.0399405347294942e-02  1.9932979487412388e-02  1.8861121254399576e-02  1.7075373603388341e-02  1.4449711390347128e-02  1.0839546823072531e-02  6.0822544660748034e-03  0.0000000000000000e+00  0.0000000000000000e+00  2.2188694283363248e-03  4.4169267482212851e-03  6.5739314001385723e-03  8.6686846890489042e-03  1.0678507603165577e-02  1.2578663804336584e-02  1.4341703087243337e-02  1.5936696245274540e-02  1.7328326504184172e-02  1.8475795429540951e-02  1.9331492990797606e-02  1.9839373907585243e-02  1.9932979487412385e-02  1.9533054496565238e-02  1.8544749241311421e-02  1.6854498567874240e-02  1.4326879126346651e-02  1.0802116479136576e-02  6.0954444661303342e-03  0.0000000000000000e+00  0.0000000000000000e+00  2.0700102083918951e-03  4.1212777254444211e-03  6.1356686678262825e-03  8.0941680468520714e-03  9.9763989446124603e-03  1.1760086159312174e-02  1.3420436818288783e-02  1.4929404861119591e-02  1.6254797769973489e-02  1.7359171722755178e-02  1.8198444823906597e-02  1.8720137025669790e-02  1.8861121254399572e-02  1.8544749241311418e-02  1.7677215112554746e-02  1.6143082199747305e-02  1.3800113780556213e-02  1.0474079318639626e-02  5.9552649044265276e-03  0.0000000000000000e+00  0.0000000000000000e+00  1.8451491257523245e-03  3.6741938390406148e-03  5.4716880525292949e-03  7.2214130613533602e-03  8.9059615764868934e-03  1.0506269340234149e-02  1.2001065805422692e-02  1.3366209674703632e-02  1.4573864569785924e-02  1.5591453595024873e-02  1.6380306943902662e-02  1.6893880704813478e-02  1.7075373603388337e-02  1.6854498567874236e-02  1.6143082199747298e-02  1.4829098521399119e-02  1.2768801463853247e-02  9.7771013803416764e-03  5.6179143071081574e-03  0.0000000000000000e+00  0.0000000000000000e+00  1.5354077055077359e-03  3.0578972977942679e-03  4.5552608332605849e-03  6.0146515637335592e-03  7.4222591308244585e-03  8.7629374134905579e-03  1.0019759222199368e-02  1.1173467371915434e-02  1.2201780275645203e-02  1.3078491522714191e-02  1.3772273460631076e-02  1.4245047908007432e-02  1.4449711390347130e-02  1.4326879126346653e-02  1.3800113780556209e-02  1.2768801463853242e-02  1.1097440466660698e-02  8.5998591149411534e-03  5.0178876189047256e-03  0.0000000000000000e+00  0.0000000000000000e+00  1.1313607273317832e-03  2.2535182659886794e-03  3.3580031211253515e-03  4.4358566456681259e-03  5.4774278377480862e-03  6.4721228805958647e-03  7.4080939757132890e-03  8.2718474672895861e-03  9.0477395592062030e-03  9.7173105569315354e-03  1.0258380970151287e-02  1.0643786419525805e-02  1.0839546823072531e-02  1.0802116479136578e-02  1.0474079318639626e-02  9.7771013803416747e-03  8.5998591149411534e-03  6.7765734379569642e-03  4.0484878146799302e-03  0.0000000000000000e+00  0.0000000000000000e+00  6.2305569846011252e-04  1.2411646896744151e-03  1.8500059858773444e-03  2.4449391154201211e-03  3.0209483506506252e-03  3.5725269296550239e-03  4.0935195746518377e-03  4.5769189154629061e-03  5.0145999523564192e-03  5.3969651870143650e-03  5.7124558713579320e-03  5.9468552098658600e-03  6.0822544660748016e-03  6.0954444661303333e-03  5.9552649044265294e-03  5.6179143071081608e-03  5.0178876189047273e-03  4.0484878146799302e-03  2.5144002568832161e-03  0.0000000000000000e+00  0.0000000000000000e+00  0.0000000000000000e+00  0.0000000000000000e+00  0.0000000000000000e+00  0.0000000000000000e+00  0.0000000000000000e+00  0.0000000000000000e+00  0.0000000000000000e+00  0.0000000000000000e+00  0.0000000000000000e+00  0.0000000000000000e+00  0.0000000000000000e+00  0.0000000000000000e+00  0.0000000000000000e+00  0.0000000000000000e+00  0.0000000000000000e+00  0.0000000000000000e+00  0.0000000000000000e+00  0.0000000000000000e+00  0.0000000000000000e+00  0.0000000000000000e+00  </DataArray> 
</PointData> 
</Piece>
</UnstructuredGrid>
</VTKFile>