<?xml version="1.0"?>
<VTKFile type="UnstructuredGrid"  version="0.1"  >
<UnstructuredGrid>
<Piece  NumberOfPoints="441" NumberOfCells="800">
<Points>
<DataArray  type="Float64"  NumberOfComponents="3"  format="ascii">0 0 0  0.05 0 0  0.1 0 0  0.15 0 0  0.2 0 0  0.25 0 0  0.3 0 0  0.35 0 0  0.4 0 0  0.45 0 0  0.5 0 0  0.55 0 0  0.6 0 0  0.65 0 0  0.7 0 0  0.75 0 0  0.8 0 0  0.85 0 0  0.9 0 0  0.95 0 0  1 0 0  0 0.05 0  0.05 0.05 0  0.1 0.05 0  0.15 0.05 0  0.2 0.05 0  0.25 0.05 0  0.3 0.05 0  0.35 0.05 0  0.4 0.05 0  0.45 0.05 0  0.5 0.05 0  0.55 0.05 0  0.6 0.05 0  0.65 0.05 0  0.7 0.05 0  0.75 0.05 0  0.8 0.05 0  0.85 0.05 0  0.9 0.05 0  0.95 0.05 0  1 0.05 0  0 0.1 0  0.05 0.1 0  0.1 0.1 0  0.15 0.1 0  0.2 0.1 0  0.25 0.1 0  0.3 0.1 0  0.35 0.1 0  0.4 0.1 0  0.45 0.1 0  0.5 0.1 0  0.55 0.1 0  0.6 0.1 0  0.65 0.1 0  0.7 0.1 0  0.75 0.1 0  0.8 0.1 0  0.85 0.1 0  0.9 0.1 0  0.95 0.1 0  1 0.1 0  0 0.15 0  0.05 0.15 0  0.1 0.15 0  0.15 0.15 0  0.2 0.15 0  0.25 0.15 0  0.3 0.15 0  0.35 0.15 0  0.4 0.15 0  0.45 0.15 0  0.5 0.15 0  0.55 0.15 0  0.6 0.15 0  0.65 0.15 0  0.7 0.15 0  0.75 0.15 0  0.8 0.15 0  0.85 0.15 0  0.9 0.15 0  0.95 0.15 0  1 0.15 0  0 0.2 0  0.05 0.2 0  0.1 0.2 0  0.15 0.2 0  0.2 0.2 0  0.25 0.2 0  0.3 0.2 0  0.35 0.2 0  0.4 0.2 0  0.45 0.2 0  0.5 0.2 0  0.55 0.2 0  0.6 0.2 0  0.65 0.2 0  0.7 0.2 0  0.75 0.2 0  0.8 0.2 0  0.85 0.2 0  0.9 0.2 0  0.95 0.2 0  1 0.2 0  0 0.25 0  0.05 0.25 0  0.1 0.25 0  0.15 0.25 0  0.2 0.25 0  0.25 0.25 0  0.3 0.25 0  0.35 0.25 0  0.4 0.25 0  0.45 0.25 0  0.5 0.25 0  0.55 0.25 0  0.6 0.25 0  0.65 0.25 0  0.7 0.25 0  0.75 0.25 0  0.8 0.25 0  0.85 0.25 0  0.9 0.25 0  0.95 0.25 0  1 0.25 0  0 0.3 0  0.05 0.3 0  0.1 0.3 0  0.15 0.3 0  0.2 0.3 0  0.25 0.3 0  0.3 0.3 0  0.35 0.3 0  0.4 0.3 0  0.45 0.3 0  0.5 0.3 0  0.55 0.3 0  0.6 0.3 0  0.65 0.3 0  0.7 0.3 0  0.75 0.3 0  0.8 0.3 0  0.85 0.3 0  0.9 0.3 0  0.95 0.3 0  1 0.3 0  0 0.35 0  0.05 0.35 0  0.1 0.35 0  0.15 0.35 0  0.2 0.35 0  0.25 0.35 0  0.3 0.35 0  0.35 0.35 0  0.4 0.35 0  0.45 0.35 0  0.5 0.35 0  0.55 0.35 0  0.6 0.35 0  0.65 0.35 0  0.7 0.35 0  0.75 0.35 0  0.8 0.35 0  0.85 0.35 0  0.9 0.35 0  0.95 0.35 0  1 0.35 0  0 0.4 0  0.05 0.4 0  0.1 0.4 0  0.15 0.4 0  0.2 0.4 0  0.25 0.4 0  0.3 0.4 0  0.35 0.4 0  0.4 0.4 0  0.45 0.4 0  0.5 0.4 0  0.55 0.4 0  0.6 0.4 0  0.65 0.4 0  0.7 0.4 0  0.75 0.4 0  0.8 0.4 0  0.85 0.4 0  0.9 0.4 0  0.95 0.4 0  1 0.4 0  0 0.45 0  0.05 0.45 0  0.1 0.45 0  0.15 0.45 0  0.2 0.45 0  0.25 0.45 0  0.3 0.45 0  0.35 0.45 0  0.4 0.45 0  0.45 0.45 0  0.5 0.45 0  0.55 0.45 0  0.6 0.45 0  0.65 0.45 0  0.7 0.45 0  0.75 0.45 0  0.8 0.45 0  0.85 0.45 0  0.9 0.45 0  0.95 0.45 0  1 0.45 0  0 0.5 0  0.05 0.5 0  0.1 0.5 0  0.15 0.5 0  0.2 0.5 0  0.25 0.5 0  0.3 0.5 0  0.35 0.5 0  0.4 0.5 0  0.45 0.5 0  0.5 0.5 0  0.55 0.5 0  0.6 0.5 0  0.65 0.5 0  0.7 0.5 0  0.75 0.5 0  0.8 0.5 0  0.85 0.5 0  0.9 0.5 0  0.95 0.5 0  1 0.5 0  0 0.55 0  0.05 0.55 0  0.1 0.55 0  0.15 0.55 0  0.2 0.55 0  0.25 0.55 0  0.3 0.55 0  0.35 0.55 0  0.4 0.55 0  0.45 0.55 0  0.5 0.55 0  0.55 0.55 0  0.6 0.55 0  0.65 0.55 0  0.7 0.55 0  0.75 0.55 0  0.8 0.55 0  0.85 0.55 0  0.9 0.55 0  0.95 0.55 0  1 0.55 0  0 0.6 0  0.05 0.6 0  0.1 0.6 0  0.15 0.6 0  0.2 0.6 0  0.25 0.6 0  0.3 0.6 0  0.35 0.6 0  0.4 0.6 0  0.45 0.6 0  0.5 0.6 0  0.55 0.6 0  0.6 0.6 0  0.65 0.6 0  0.7 0.6 0  0.75 0.6 0  0.8 0.6 0  0.85 0.6 0  0.9 0.6 0  0.95 0.6 0  1 0.6 0  0 0.65 0  0.05 0.65 0  0.1 0.65 0  0.15 0.65 0  0.2 0.65 0  0.25 0.65 0  0.3 0.65 0  0.35 0.65 0  0.4 0.65 0  0.45 0.65 0  0.5 0.65 0  0.55 0.65 0  0.6 0.65 0  0.65 0.65 0  0.7 0.65 0  0.75 0.65 0  0.8 0.65 0  0.85 0.65 0  0.9 0.65 0  0.95 0.65 0  1 0.65 0  0 0.7 0  0.05 0.7 0  0.1 0.7 0  0.15 0.7 0  0.2 0.7 0  0.25 0.7 0  0.3 0.7 0  0.35 0.7 0  0.4 0.7 0  0.45 0.7 0  0.5 0.7 0  0.55 0.7 0  0.6 0.7 0  0.65 0.7 0  0.7 0.7 0  0.75 0.7 0  0.8 0.7 0  0.85 0.7 0  0.9 0.7 0  0.95 0.7 0  1 0.7 0  0 0.75 0  0.05 0.75 0  0.1 0.75 0  0.15 0.75 0  0.2 0.75 0  0.25 0.75 0  0.3 0.75 0  0.35 0.75 0  0.4 0.75 0  0.45 0.75 0  0.5 0.75 0  0.55 0.75 0  0.6 0.75 0  0.65 0.75 0  0.7 0.75 0  0.75 0.75 0  0.8 0.75 0  0.85 0.75 0  0.9 0.75 0  0.95 0.75 0  1 0.75 0  0 0.8 0  0.05 0.8 0  0.1 0.8 0  0.15 0.8 0  0.2 0.8 0  0.25 0.8 0  0.3 0.8 0  0.35 0.8 0  0.4 0.8 0  0.45 0.8 0  0.5 0.8 0  0.55 0.8 0  0.6 0.8 0  0.65 0.8 0  0.7 0.8 0  0.75 0.8 0  0.8 0.8 0  0.85 0.8 0  0.9 0.8 0  0.95 0.8 0  1 0.8 0  0 0.85 0  0.05 0.85 0  0.1 0.85 0  0.15 0.85 0  0.2 0.85 0  0.25 0.85 0  0.3 0.85 0  0.35 0.85 0  0.4 0.85 0  0.45 0.85 0  0.5 0.85 0  0.55 0.85 0  0.6 0.85 0  0.65 0.85 0  0.7 0.85 0  0.75 0.85 0  0.8 0.85 0  0.85 0.85 0  0.9 0.85 0  0.95 0.85 0  1 0.85 0  0 0.9 0  0.05 0.9 0  0.1 0.9 0  0.15 0.9 0  0.2 0.9 0  0.25 0.9 0  0.3 0.9 0  0.35 0.9 0  0.4 0.9 0  0.45 0.9 0  0.5 0.9 0  0.55 0.9 0  0.6 0.9 0  0.65 0.9 0  0.7 0.9 0  0.75 0.9 0  0.8 0.9 0  0.85 0.9 0  0.9 0.9 0  0.95 0.9 0  1 0.9 0  0 0.95 0  0.05 0.95 0  0.1 0.95 0  0.15 0.95 0  0.2 0.95 0  0.25 0.95 0  0.3 0.95 0  0.35 0.95 0  0.4 0.95 0  0.45 0.95 0  0.5 0.95 0  0.55 0.95 0  0.6 0.95 0  0.65 0.95 0  0.7 0.95 0  0.75 0.95 0  0.8 0.95 0  0.85 0.95 0  0.9 0.95 0  0.95 0.95 0  1 0.95 0  0 1 0  0.05 1 0  0.1 1 0  0.15 1 0  0.2 1 0  0.25 1 0  0.3 1 0  0.35 1 0  0.4 1 0  0.45 1 0  0.5 1 0  0.55 1 0  0.6 1 0  0.65 1 0  0.7 1 0  0.75 1 0  0.8 1 0  0.85 1 0  0.9 1 0  0.95 1 0  1 1 0  </DataArray>
</Points>
<Cells>
[...]
<PointData  Vectors="grad(u)"> 
<DataArray  type="Float64"  Name="grad(u)"  NumberOfComponents="3" format="ascii">1.2154723116797710e-03 1.2154626086892820e-03 0.0000000000000000e+00  -7.9699747115325725e-05 7.2515654666159904e-03 0.0000000000000000e+00  -5.2687939718403191e-06 1.2642173688045179e-02 0.0000000000000000e+00  7.1894151167044717e-06 1.7971629742273260e-02 0.0000000000000000e+00  2.7170332952378034e-06 2.3075692567315061e-02 0.0000000000000000e+00  3.7603968479866449e-06 2.7894640842771077e-02 0.0000000000000000e+00  4.0114924939902910e-06 3.2354330520551221e-02 0.0000000000000000e+00  4.3564709906010814e-06 3.6374282009059775e-02 0.0000000000000000e+00  4.7658590162117675e-06 3.9867493236983263e-02 0.0000000000000000e+00  5.2023794396827865e-06 4.2739009514601640e-02 0.0000000000000000e+00  5.7236804957129078e-06 4.4885065173014507e-02 0.0000000000000000e+00  6.1184549901387859e-06 4.6192204150922463e-02 0.0000000000000000e+00  7.1084158096066489e-06 4.6536532288654099e-02 0.0000000000000000e+00  6.0797779089966737e-06 4.5783128590653047e-02 0.0000000000000000e+00  1.2280850562566845e-05 4.3785591119414304e-02 0.0000000000000000e+00  -7.3073520176961556e-06 4.0386017939103271e-02 0.0000000000000000e+00  6.5560581915414959e-05 3.5416304297774884e-02 0.0000000000000000e+00  -1.9318680492826567e-04 2.8681545940238029e-02 0.0000000000000000e+00  7.1111247743723034e-04 2.0066362197118073e-02 0.0000000000000000e+00  -2.1985927268424782e-03 9.2019875912142442e-03 0.0000000000000000e+00  5.5934602375559651e-03 -5.5433751369137205e-03 0.0000000000000000e+00  7.2515799426816361e-03 -7.9685575261757155e-05 0.0000000000000000e+00  5.1091552389230400e-03 5.1091560847728442e-03 0.0000000000000000e+00  5.5049993716998280e-03 1.0565521519065691e-02 0.0000000000000000e+00  5.2625000933853722e-03 1.5930340867456021e-02 0.0000000000000000e+00  5.0402985232073432e-03 2.1083757463408116e-02 0.0000000000000000e+00  4.7410149449986332e-03 2.5985070292506528e-02 0.0000000000000000e+00  4.3658487070036096e-03 3.0556420001910913e-02 0.0000000000000000e+00  3.9096212897351112e-03 3.4721131488447722e-02 0.0000000000000000e+00  3.3648200634848256e-03 3.8395142378247309e-02 0.0000000000000000e+00  2.7234268247969527e-03 4.1486892192486712e-02 0.0000000000000000e+00  1.9764285530333003e-03 4.3896324482349473e-02 0.0000000000000000e+00  1.1138591136402893e-03 4.5513945197977371e-02 0.0000000000000000e+00  1.2541355563988510e-04 4.6220016309600105e-02 0.0000000000000000e+00  -1.0011706960322230e-03 4.5883873550356953e-02 0.0000000000000000e+00  -2.2735017694953184e-03 4.4363456473648907e-02 0.0000000000000000e+00  -3.7171063358903684e-03 4.1505159464509625e-02 0.0000000000000000e+00  -5.2943702098793956e-03 3.7142599436679080e-02 0.0000000000000000e+00  -7.1916899745399065e-03 3.1102963927395429e-02 0.0000000000000000e+00  -8.7790954808723287e-03 2.3198055023662897e-02 0.0000000000000000e+00  -1.2490456002886218e-02 1.3092202628179886e-02 0.0000000000000000e+00  -8.9883277482694576e-03 1.8847626826131866e-03 0.0000000000000000e+00  1.2642193624783289e-02 -5.2634849617294017e-06 0.0000000000000000e+00  1.0565504943082915e-02 5.5049885503630561e-03 0.0000000000000000e+00  1.0928854693996693e-02 1.0928848046543600e-02 0.0000000000000000e+00  1.0454147039868385e-02 1.6164014558240614e-02 0.0000000000000000e+00  1.0032704848671654e-02 2.1216099676448372e-02 0.0000000000000000e+00  9.4333456886234440e-03 2.6013588675416536e-02 0.0000000000000000e+00  8.6904327770646640e-03 3.0481993205229579e-02 0.0000000000000000e+00  7.7851392644619410e-03 3.4546294913055650e-02 0.0000000000000000e+00  6.7038431618162133e-03 3.8122976282466123e-02 0.0000000000000000e+00  5.4303431813998992e-03 4.1121280524625048e-02 0.0000000000000000e+00  3.9465010689235733e-03 4.3441676337685808e-02 0.0000000000000000e+00  2.2323070004723411e-03 4.4974958762639086e-02 0.0000000000000000e+00  2.6681919062284212e-04 4.5601379733720832e-02 0.0000000000000000e+00  -1.9741303865354306e-03 4.5189920819545343e-02 0.0000000000000000e+00  -4.5079817060856061e-03 4.3597803732243805e-02 0.0000000000000000e+00  -7.3792701459820852e-03 4.0670060859129165e-02 0.0000000000000000e+00  -1.0536224740893482e-02 3.6240096301130190e-02 0.0000000000000000e+00  -1.4267082199494385e-02 3.0129380067608100e-02 0.0000000000000000e+00  -1.7660046149847501e-02 2.2138348680280247e-02 0.0000000000000000e+00  -2.3983493570184068e-02 1.2152388372537397e-02 0.0000000000000000e+00  -2.1974286008933065e-02 -5.0913653732833351e-04 0.0000000000000000e+00  1.7971642633484951e-02 7.1940321494203821e-06 0.0000000000000000e+00  1.5930338438883179e-02 5.2624987232154528e-03 0.0000000000000000e+00  1.6164025790061001e-02 1.0454149386834243e-02 0.0000000000000000e+00  1.5541901439181454e-02 1.5541901155014907e-02 0.0000000000000000e+00  1.4912038847988916e-02 2.0458005692541237e-02 0.0000000000000000e+00  1.4023382743036843e-02 2.5127472950607525e-02 0.0000000000000000e+00  1.2925609163542949e-02 2.9485082923558465e-02 0.0000000000000000e+00  1.1585062080898795e-02 3.3456953598514000e-02 0.0000000000000000e+00  9.9834776066992752e-03 3.6962468875448774e-02 0.0000000000000000e+00  8.0959022808481558e-03 3.9913600134507836e-02 0.0000000000000000e+00  5.8949860113872900e-03 4.2213350780169662e-02 0.0000000000000000e+00  3.3504558247450184e-03 4.3754837897193109e-02 0.0000000000000000e+00  4.3024991394164210e-04 4.4420284693324229e-02 0.0000000000000000e+00  -2.9015852886528320e-03 4.4080189152831524e-02 0.0000000000000000e+00  -6.6747486479400969e-03 4.2592699919947179e-02 0.0000000000000000e+00  -1.0946311495189915e-02 3.9803231530535728e-02 0.0000000000000000e+00  -1.5675543251593958e-02 3.5544588719968781e-02 0.0000000000000000e+00  -2.1171260271101146e-02 2.9635995182394625e-02 0.0000000000000000e+00  -2.6478125506937133e-02 2.1893060912227282e-02 0.0000000000000000e+00  -3.5160562316156128e-02 1.2078727143841466e-02 0.0000000000000000e+00  -3.4648665885464530e-02 1.2966541063171786e-04 0.0000000000000000e+00  2.3075709847139445e-02 2.7229001216142193e-06 0.0000000000000000e+00  2.1083750600205481e-02 5.0402944709732438e-03 0.0000000000000000e+00  2.1216106135344838e-02 1.0032703026436567e-02 0.0000000000000000e+00  2.0457994420448166e-02 1.4912029574154559e-02 0.0000000000000000e+00  1.9619851240399003e-02 1.9619847940817552e-02 0.0000000000000000e+00  1.8461955411467640e-02 2.4098840314636830e-02 0.0000000000000000e+00  1.7026697656329210e-02 2.8285349030013923e-02 0.0000000000000000e+00  1.5272470124293972e-02 3.2108590725408961e-02 0.0000000000000000e+00  1.3175326499969959e-02 3.5492054489461002e-02 0.0000000000000000e+00  1.0701334001342048e-02 3.8351223578765255e-02 0.0000000000000000e+00  7.8137784218077991e-03 4.0592490258777147e-02 0.0000000000000000e+00  4.4717121535053552e-03 4.2111993916266376e-02 0.0000000000000000e+00  6.3148529356633768e-04 4.2794461571785528e-02 0.0000000000000000e+00  -3.7554174154031160e-03 4.2512209111933791e-02 0.0000000000000000e+00  -8.7312766100535195e-03 4.1124355491518619e-02 0.0000000000000000e+00  -1.4368158706076507e-02 3.8476268939327901e-02 0.0000000000000000e+00  -2.0632118410515900e-02 3.4399524969869318e-02 0.0000000000000000e+00  -2.7868022526593289e-02 2.8712316511400233e-02 0.0000000000000000e+00  -3.5046057816390246e-02 2.1218734509719631e-02 0.0000000000000000e+00  -4.6058501005861244e-02 1.1719349703786566e-02 0.0000000000000000e+00  -4.7139795992827353e-02 -2.3848442203880534e-05 0.0000000000000000e+00  2.7894657042120234e-02 3.7660731659721137e-06 0.0000000000000000e+00  2.5985063917822734e-02 4.7410097708251060e-03 0.0000000000000000e+00  2.6013596672164758e-02 9.4333453630655074e-03 0.0000000000000000e+00  2.5127473031338669e-02 1.4023380557329500e-02 0.0000000000000000e+00  2.4098851589680715e-02 1.8461964798408746e-02 0.0000000000000000e+00  2.2692864551026849e-02 2.2692869455085848e-02 0.0000000000000000e+00  2.0943701261267527e-02 2.6655832915107154e-02 0.0000000000000000e+00  1.8804995037049153e-02 3.0285887996668540e-02 0.0000000000000000e+00  1.6245469759496801e-02 3.3511498276078175e-02 0.0000000000000000e+00  1.3222472702360153e-02 3.6253022711949606e-02 0.0000000000000000e+00  9.6895608888023631e-03 3.8421561108418829e-02 0.0000000000000000e+00  5.5946326471665846e-03 3.9917512188471845e-02 0.0000000000000000e+00  8.8176591144048251e-04 4.0629232208946327e-02 0.0000000000000000e+00  -4.5109592596809306e-03 4.0431784317519780e-02 0.0000000000000000e+00  -1.0639667829836472e-02 3.9185893253703336e-02 0.0000000000000000e+00  -1.7592129937476671e-02 3.6737145343119178e-02 0.0000000000000000e+00  -2.5344241322289244e-02 3.2915880864371104e-02 0.0000000000000000e+00  -3.4273659135361331e-02 2.7536711523595943e-02 0.0000000000000000e+00  -4.3288213017266014e-02 2.0402188469721402e-02 0.0000000000000000e+00  -5.6585971133522137e-02 1.1294679192996161e-02 0.0000000000000000e+00  -5.9264868594608985e-02 1.2009685995767281e-05 0.0000000000000000e+00  3.2354346711525740e-02 4.0161844288854226e-06 0.0000000000000000e+00  3.0556412682614831e-02 4.3658438529078211e-03 0.0000000000000000e+00  3.0482006503128992e-02 8.6904353827004146e-03 0.0000000000000000e+00  2.9485071436750165e-02 1.2925599933871223e-02 0.0000000000000000e+00  2.8285355862182306e-02 1.7026698343791866e-02 0.0000000000000000e+00  2.6655820735485593e-02 2.0943691490772288e-02 0.0000000000000000e+00  2.4623566598807559e-02 2.4623561075119742e-02 0.0000000000000000e+00  2.2136975417960395e-02 2.8007720955921852e-02 0.0000000000000000e+00  1.9157163906955873e-02 3.1030895408356313e-02 0.0000000000000000e+00  1.5632862541350306e-02 3.3619815310334519e-02 0.0000000000000000e+00  1.1507460712594904e-02 3.5691683975156790e-02 0.0000000000000000e+00  6.7171734491360859e-03 3.7152550136669502e-02 0.0000000000000000e+00  1.1929702012401431e-03 3.7895688018324845e-02 0.0000000000000000e+00  -5.1416050100876630e-03 3.7799999776768047e-02 0.0000000000000000e+00  -1.2357997732705676e-02 3.6728596722307806e-02 0.0000000000000000e+00  -2.0561310348035263e-02 3.4527635732865575e-02 0.0000000000000000e+00  -2.9739639703184495e-02 3.1025862829240206e-02 0.0000000000000000e+00  -4.0303537963983289e-02 2.6034182102349923e-02 0.0000000000000000e+00  -5.1107803983103404e-02 1.9348305841087973e-02 0.0000000000000000e+00  -6.6629711725707474e-02 1.0744975558094333e-02 0.0000000000000000e+00  -7.0928872606610099e-02 4.6049643914558783e-06 0.0000000000000000e+00  3.6374296868864467e-02 4.3603486585404355e-06 0.0000000000000000e+00  3.4721126488927258e-02 3.9096176033395049e-03 0.0000000000000000e+00  3.4546304790006789e-02 7.7851394704743651e-03 0.0000000000000000e+00  3.3456946143254097e-02 1.1585054718267854e-02 0.0000000000000000e+00  3.2108607737996619e-02 1.5272477835797332e-02 0.0000000000000000e+00  3.0285876856039465e-02 1.8804995226145794e-02 0.0000000000000000e+00  2.8007733114006252e-02 2.2136984044011061e-02 0.0000000000000000e+00  2.5217463298963756e-02 2.5217469018311230e-02 0.0000000000000000e+00  2.1868760987543246e-02 2.7989125344613886e-02 0.0000000000000000e+00  1.7901622904096904e-02 3.0386636991458243e-02 0.0000000000000000e+00  1.3248939702499575e-02 3.2334990941411131e-02 0.0000000000000000e+00  7.8346755309727928e-03 3.3747614857741956e-02 0.0000000000000000e+00  1.5757262662498782e-03 3.4524378841332054e-02 0.0000000000000000e+00  -5.6202576719543047e-03 3.4549544437065656e-02 0.0000000000000000e+00  -1.3841953185316903e-02 3.3689816350834310e-02 0.0000000000000000e+00  -2.3213850947095122e-02 3.1792615660677898e-02 0.0000000000000000e+00  -3.3739640330864615e-02 2.8685155183592315e-02 0.0000000000000000e+00  -4.5862986792264249e-02 2.4173488427209844e-02 0.0000000000000000e+00  -5.8396995495964291e-02 1.8045748247893782e-02 0.0000000000000000e+00  -7.6070115927727708e-02 1.0066480379473147e-02 0.0000000000000000e+00  -8.2010571070114904e-02 7.3408512080499694e-06 0.0000000000000000e+00  3.9867507167067939e-02 4.7693042524816085e-06 0.0000000000000000e+00  3.8395137560586538e-02 3.3648165860841739e-03 0.0000000000000000e+00  3.8122987044054708e-02 6.7038442390012099e-03 0.0000000000000000e+00  3.6962461819904951e-02 9.9834714721679946e-03 0.0000000000000000e+00  3.5492069376317693e-02 1.3175331450524899e-02 0.0000000000000000e+00  3.3511481756440580e-02 1.6245463453255837e-02 0.0000000000000000e+00  3.1030908203590217e-02 1.9157163651665830e-02 0.0000000000000000e+00  2.7989115465284427e-02 2.1868754683943462e-02 0.0000000000000000e+00  2.4332480796597625e-02 2.4332475511628402e-02 0.0000000000000000e+00  1.9992288406668297e-02 2.6492754769080439e-02 0.0000000000000000e+00  1.4890742134923215e-02 2.8284356256207090e-02 0.0000000000000000e+00  8.9390131672940024e-03 2.9630195655817402e-02 0.0000000000000000e+00  2.0389072989181658e-03 3.0438896507654297e-02 0.0000000000000000e+00  -5.9193824839356233e-03 3.0602152203239551e-02 0.0000000000000000e+00  -1.5044092360892066e-02 2.9992043767962984e-02 0.0000000000000000e+00  -2.5481784927940579e-02 2.8458489640381647e-02 0.0000000000000000e+00  -3.7256145404968161e-02 2.5827525776916698e-02 0.0000000000000000e+00  -5.0844839699478117e-02 2.1899619336037675e-02 0.0000000000000000e+00  -6.5033378455945812e-02 1.6452965661251994e-02 0.0000000000000000e+00  -8.4769118082592229e-02 9.2370119969276236e-03 0.0000000000000000e+00  -9.2373267617140764e-02 8.0047178157149726e-06 0.0000000000000000e+00  4.2739021721515690e-02 5.2033037726325129e-06 0.0000000000000000e+00  4.1486888730351050e-02 2.7234234561393845e-03 0.0000000000000000e+00  4.1121290252344712e-02 5.4303429717863635e-03 0.0000000000000000e+00  3.9913594458421651e-02 8.0958948830788195e-03 0.0000000000000000e+00  3.8351239122370741e-02 1.0701337371406749e-02 0.0000000000000000e+00  3.6253006295875918e-02 1.3222468197791144e-02 0.0000000000000000e+00  3.3619830382392496e-02 1.5632865094732253e-02 0.0000000000000000e+00  3.0386625841287866e-02 1.7901621061718938e-02 0.0000000000000000e+00  2.6492761896159924e-02 1.9992289315669924e-02 0.0000000000000000e+00  2.1861097590613277e-02 2.1861098306303589e-02 0.0000000000000000e+00  1.6403160794101673e-02 2.3454913017882158e-02 0.0000000000000000e+00  1.0016951361768117e-02 2.4708723820516205e-02 0.0000000000000000e+00  2.5882289361234198e-03 2.5542695189979311e-02 0.0000000000000000e+00  -6.0119534135264505e-03 2.5858787353875656e-02 0.0000000000000000e+00  -1.5914128536637439e-02 2.5537093231128755e-02 0.0000000000000000e+00  -2.7290302286632779e-02 2.4432102327428463e-02 0.0000000000000000e+00  -4.0189885465016520e-02 2.2369737002426018e-02 0.0000000000000000e+00  -5.5126387504471519e-02 1.9144347646933551e-02 0.0000000000000000e+00  -7.0875407822929962e-02 1.4521891821243185e-02 0.0000000000000000e+00  -9.2566477498658956e-02 8.2316663649980026e-03 0.0000000000000000e+00  -1.0185987300216977e-01 9.6089368526553154e-06 0.0000000000000000e+00  4.4885075211764464e-02 5.7281766445500090e-06 0.0000000000000000e+00  4.3896322084515299e-02 1.9764283357809093e-03 0.0000000000000000e+00  4.3441685382895466e-02 3.9465042416015938e-03 0.0000000000000000e+00  4.2213346119520705e-02 5.8949836164224551e-03 0.0000000000000000e+00  4.0592505868094382e-02 7.8137859106611612e-03 0.0000000000000000e+00  3.8421543496286695e-02 9.6895606328745148e-03 0.0000000000000000e+00  3.5691699779764885e-02 1.1507466139966168e-02 0.0000000000000000e+00  3.2334978396580220e-02 1.3248940843000025e-02 0.0000000000000000e+00  2.8284364306517953e-02 1.4890745232368349e-02 0.0000000000000000e+00  2.3454911708969541e-02 1.6403162988682628e-02 0.0000000000000000e+00  1.7747839507396286e-02 1.7747841614484741e-02 0.0000000000000000e+00  1.1047943315371544e-02 1.8874984948394000e-02 0.0000000000000000e+00  3.2242230828095552e-03 1.9719854004872566e-02 0.0000000000000000e+00  -5.8730298066754488e-03 2.0198516269620735e-02 0.0000000000000000e+00  -1.6399689139951219e-02 2.0202945027159906e-02 0.0000000000000000e+00  -2.8557288510482757e-02 1.9595608928778031e-02 0.0000000000000000e+00  -4.2428366487532267e-02 1.8204569158628548e-02 0.0000000000000000e+00  -5.8565451673716865e-02 1.5818250555791509e-02 0.0000000000000000e+00  -7.5756976577000715e-02 1.2187889567369282e-02 0.0000000000000000e+00  -9.9272568703893393e-02 7.0163855624206430e-03 0.0000000000000000e+00  -1.1028575110372749e-01 1.1552156387104510e-05 0.0000000000000000e+00  4.6192212710680851e-02 6.1090051599354200e-06 0.0000000000000000e+00  4.5513944278125197e-02 1.1138532350410230e-03 0.0000000000000000e+00  4.4974967121516538e-02 2.2323000595855470e-03 0.0000000000000000e+00  4.3754834785790668e-02 3.3504430774073616e-03 0.0000000000000000e+00  4.2112009563846045e-02 4.4717059454638542e-03 0.0000000000000000e+00  3.9917493910270149e-02 5.5946190001660576e-03 0.0000000000000000e+00  3.7152566878553582e-02 6.7171639765732120e-03 0.0000000000000000e+00  3.3747601054415634e-02 7.8346615935829828e-03 0.0000000000000000e+00  2.9630204201656803e-02 8.9390004923556605e-03 0.0000000000000000e+00  2.4708721615086894e-02 1.0016937622489770e-02 0.0000000000000000e+00  1.8874982845965293e-02 1.1047929507625910e-02 0.0000000000000000e+00  1.2001128827449140e-02 1.2001115474122349e-02 0.0000000000000000e+00  3.9392293143949726e-03 1.2831321819645624e-02 0.0000000000000000e+00  -5.4824167870195012e-03 1.3473891071292156e-02 0.0000000000000000e+00  -1.6448142799718686e-02 1.3838252930038292e-02 0.0000000000000000e+00  -2.9193689950630639e-02 1.3800186104025966e-02 0.0000000000000000e+00  -4.3844119331976864e-02 1.3194135822852730e-02 0.0000000000000000e+00  -6.0995913439332833e-02 1.1804366584562052e-02 0.0000000000000000e+00  -7.9480345224491392e-02 9.3654383032086633e-03 0.0000000000000000e+00  -1.0465877411458054e-01 5.5457669137771682e-03 0.0000000000000000e+00  -1.1742991029016477e-01 1.4247289989514128e-05 0.0000000000000000e+00  4.6536533284537399e-02 7.1231230915402008e-06 0.0000000000000000e+00  4.6220016105913420e-02 1.2542267852404891e-04 0.0000000000000000e+00  4.5601384998761853e-02 2.6683278564521988e-04 0.0000000000000000e+00  4.4420281644506926e-02 4.3026212279320344e-04 0.0000000000000000e+00  4.2794475425328479e-02 6.3150535615812619e-04 0.0000000000000000e+00  4.0629212444279278e-02 8.8178287623053551e-04 0.0000000000000000e+00  3.7895704495459571e-02 1.1929927155861786e-03 0.0000000000000000e+00  3.4524363654516714e-02 1.5757471472241376e-03 0.0000000000000000e+00  3.0438905705363468e-02 2.0389308576947828e-03 0.0000000000000000e+00  2.5542692926680269e-02 2.5882524732063678e-03 0.0000000000000000e+00  1.9719853348994225e-02 3.2242474142333585e-03 0.0000000000000000e+00  1.2831335179506260e-02 3.9392537731748134e-03 0.0000000000000000e+00  4.7130982647923068e-03 4.7131202200038263e-03 0.0000000000000000e+00  -4.8289051419252256e-03 5.5071319567932134e-03 0.0000000000000000e+00  -1.6010134031644405e-02 6.2558910870700998e-03 0.0000000000000000e+00  -2.9105246024867297e-02 6.8569154142124993e-03 0.0000000000000000e+00  -4.4293450481129877e-02 7.1591036353995654e-03 0.0000000000000000e+00  -6.2222406671435443e-02 6.9473921089403231e-03 0.0000000000000000e+00  -8.1806897362319525e-02 5.9389269789356901e-03 0.0000000000000000e+00  -1.0844387382446213e-01 3.7575107367411108e-03 0.0000000000000000e+00  -1.2302222767249955e-01 1.7970064267624079e-05 0.0000000000000000e+00  4.5783139692560773e-02 6.0556874950520743e-06 0.0000000000000000e+00  4.5883877865380202e-02 -1.0011820207131352e-03 0.0000000000000000e+00  4.5189930035316711e-02 -1.9741486502756335e-03 0.0000000000000000e+00  4.4080191837134505e-02 -2.9016094770411903e-03 0.0000000000000000e+00  4.2512226254261119e-02 -3.7554415991008024e-03 0.0000000000000000e+00  4.0431767869364692e-02 -4.5109901410580891e-03 0.0000000000000000e+00  3.7800019329693242e-02 -5.1416363365338691e-03 0.0000000000000000e+00  3.4549530559094037e-02 -5.6202940886479315e-03 0.0000000000000000e+00  3.0602162469889931e-02 -5.9194202542496169e-03 0.0000000000000000e+00  2.5858784249137817e-02 -6.011993